Program Version,EnergyPlus, Version 9.0.1-bb7ca4f0da, YMD=2020.01.06 16:31
1,5,Environment Title[],Latitude[deg],Longitude[deg],Time Zone[],Elevation[m]
2,8,Day of Simulation[],Month[],Day of Month[],DST Indicator[1=yes 0=no],Hour[],StartMinute[],EndMinute[],DayType
3,5,Cumulative Day of Simulation[],Month[],Day of Month[],DST Indicator[1=yes 0=no],DayType  ! When Daily Report Variables Requested
4,2,Cumulative Days of Simulation[],Month[]  ! When Monthly Report Variables Requested
5,1,Cumulative Days of Simulation[] ! When Run Period Report Variables Requested
6,1,Calendar Year of Simulation[] ! When Annual Report Variables Requested
7,1,Environment,Site Outdoor Air Drybulb Temperature [C] !TimeStep
8,1,Environment,Site Outdoor Air Dewpoint Temperature [C] !TimeStep
9,1,Environment,Site Outdoor Air Wetbulb Temperature [C] !TimeStep
10,1,Environment,Site Diffuse Solar Radiation Rate per Area [W/m2] !TimeStep
11,1,Environment,Site Direct Solar Radiation Rate per Area [W/m2] !TimeStep
12,1,Environment,Site Solar Azimuth Angle [deg] !TimeStep
13,1,Environment,Site Solar Altitude Angle [deg] !TimeStep
100,1,BLOCK 1 FLOORS BLOCK STOREY 0 IDEAL LOADS AIR SYSTEM,Zone Ideal Loads Supply Air Total Heating Energy [J] !Hourly
137,1,BLOCK 1 FLOORS BLOCK STOREY 0 IDEAL LOADS AIR SYSTEM,Zone Ideal Loads Supply Air Total Cooling Energy [J] !Hourly
End of Data Dictionary
1,DENVER_STAPLETON ANN HTG 99.6% CONDNS DB,  33.63, -84.43,  -5.00, 308.00
2,1,12,21, 0, 1, 0.00,15.00,WinterDesignDay
7,-20.0
8,-20.000007492051315
9,-20.00000192453833
10,0.0
11,0.0
12,24.94071894015531
13,-78.92142832970774
2,1,12,21, 0, 1,15.00,30.00,WinterDesignDay
7,-20.0
8,-20.000007492051315
9,-20.00000192453833
10,0.0
11,0.0
12,6.833465178320995
13,-79.78473477377013
2,1,12,21, 0, 1,30.00,45.00,WinterDesignDay
7,-20.0
8,-20.000007492051315
9,-20.00000192453833
10,0.0
11,0.0
12,12.484302780672632
13,-79.62903588041248
2,1,12,21, 0, 1,45.00,60.00,WinterDesignDay
7,-20.0
8,-20.000007492051315
9,-20.00000192453833
10,0.0
11,0.0
12,29.68388585352457
13,-78.4957686744658
2,1,12,21, 0, 1, 0.00,60.00,WinterDesignDay
100,280443208.3786721
137,0.0
2,1,12,21, 0, 2, 0.00,15.00,WinterDesignDay
7,-20.0
8,-20.000007492051315
9,-20.00000192453833
10,0.0
11,0.0
12,43.174436577597059
13,-76.63218833696685
2,1,12,21, 0, 2,15.00,30.00,WinterDesignDay
7,-20.0
8,-20.000007492051315
9,-20.00000192453833
10,0.0
11,0.0
12,53.28243372806181
13,-74.29764858186315
2,1,12,21, 0, 2,30.00,45.00,WinterDesignDay
7,-20.0
8,-20.000007492051315
9,-20.00000192453833
10,0.0
11,0.0
12,60.906160845340469
13,-71.67309506783534
2,1,12,21, 0, 2,45.00,60.00,WinterDesignDay
7,-20.0
8,-20.000007492051315
9,-20.00000192453833
10,0.0
11,0.0
12,66.82030431650289
13,-68.86845249725576
2,1,12,21, 0, 2, 0.00,60.00,WinterDesignDay
100,280443208.37875357
137,0.0
2,1,12,21, 0, 3, 0.00,15.00,WinterDesignDay
7,-20.0
8,-20.000007492051315
9,-20.00000192453833
10,0.0
11,0.0
12,71.5641804234149
13,-65.94901188186661
2,1,12,21, 0, 3,15.00,30.00,WinterDesignDay
7,-20.0
8,-20.000007492051315
9,-20.00000192453833
10,0.0
11,0.0
12,75.49399890346699
13,-62.95448763959836
2,1,12,21, 0, 3,30.00,45.00,WinterDesignDay
7,-20.0
8,-20.000007492051315
9,-20.00000192453833
10,0.0
11,0.0
12,78.84508202705105
13,-59.91002262287668
2,1,12,21, 0, 3,45.00,60.00,WinterDesignDay
7,-20.0
8,-20.000007492051315
9,-20.00000192453833
10,0.0
11,0.0
12,81.7758835840415
13,-56.83225946503388
2,1,12,21, 0, 3, 0.00,60.00,WinterDesignDay
100,280443208.37882128
137,0.0
2,1,12,21, 0, 4, 0.00,15.00,WinterDesignDay
7,-20.0
8,-20.000007492051315
9,-20.00000192453833
10,0.0
11,0.0
12,84.39583780203965
13,-53.7327226276882
2,1,12,21, 0, 4,15.00,30.00,WinterDesignDay
7,-20.0
8,-20.000007492051315
9,-20.00000192453833
10,0.0
11,0.0
12,86.78257601573572
13,-50.61975714061221
2,1,12,21, 0, 4,30.00,45.00,WinterDesignDay
7,-20.0
8,-20.000007492051315
9,-20.00000192453833
10,0.0
11,0.0
12,88.99264397054212
13,-47.4996790443442
2,1,12,21, 0, 4,45.00,60.00,WinterDesignDay
7,-20.0
8,-20.000007492051315
9,-20.00000192453833
10,0.0
11,0.0
12,91.06829542575399
13,-44.37748282868928
2,1,12,21, 0, 4, 0.00,60.00,WinterDesignDay
100,280443208.37887647
137,0.0
2,1,12,21, 0, 5, 0.00,15.00,WinterDesignDay
7,-20.0
8,-20.000007492051315
9,-20.00000192453833
10,0.0
11,0.0
12,93.04189483612253
13,-41.25729207908982
2,1,12,21, 0, 5,15.00,30.00,WinterDesignDay
7,-20.0
8,-20.000007492051315
9,-20.00000192453833
10,0.0
11,0.0
12,94.93883704210647
13,-38.14265676899099
2,1,12,21, 0, 5,30.00,45.00,WinterDesignDay
7,-20.0
8,-20.000007492051315
9,-20.00000192453833
10,0.0
11,0.0
12,96.77952790789607
13,-35.036756480995467
2,1,12,21, 0, 5,45.00,60.00,WinterDesignDay
7,-20.0
8,-20.000007492051315
9,-20.00000192453833
10,0.0
11,0.0
12,98.58075761766529
13,-31.942544598371087
2,1,12,21, 0, 5, 0.00,60.00,WinterDesignDay
100,280443208.3789208
137,0.0
2,1,12,21, 0, 6, 0.00,15.00,WinterDesignDay
7,-20.0
8,-20.000007492051315
9,-20.00000192453833
10,0.0
11,0.0
12,100.3566730027097
13,-28.86285480672823
2,1,12,21, 0, 6,15.00,30.00,WinterDesignDay
7,-20.0
8,-20.000007492051315
9,-20.00000192453833
10,0.0
11,0.0
12,102.1194799152525
13,-25.800483280899944
2,1,12,21, 0, 6,30.00,45.00,WinterDesignDay
7,-20.0
8,-20.000007492051315
9,-20.00000192453833
10,0.0
11,0.0
12,103.87996044512484
13,-22.758255178061995
2,1,12,21, 0, 6,45.00,60.00,WinterDesignDay
7,-20.0
8,-20.000007492051315
9,-20.00000192453833
10,0.0
11,0.0
12,105.64786083166298
13,-19.739081148591244
2,1,12,21, 0, 6, 0.00,60.00,WinterDesignDay
100,280443208.37895706
137,0.0
2,1,12,21, 0, 7, 0.00,15.00,WinterDesignDay
7,-20.0
8,-20.000007492051315
9,-20.00000192453833
10,0.0
11,0.0
12,107.43218740549774
13,-16.74600775093513
2,1,12,21, 0, 7,15.00,30.00,WinterDesignDay
7,-20.0
8,-20.000007492051315
9,-20.00000192453833
10,0.0
11,0.0
12,109.24143577655308
13,-13.782264480556883
2,1,12,21, 0, 7,30.00,45.00,WinterDesignDay
7,-20.0
8,-20.000007492051315
9,-20.00000192453833
10,0.0
11,0.0
12,111.08377035096253
13,-10.851309338612213
2,1,12,21, 0, 7,45.00,60.00,WinterDesignDay
7,-20.0
8,-20.000007492051315
9,-20.00000192453833
10,0.0
11,0.0
12,112.96716563235649
13,-7.956874315555182
2,1,12,21, 0, 7, 0.00,60.00,WinterDesignDay
100,280443208.37898829
137,0.0
2,1,12,21, 0, 8, 0.00,15.00,WinterDesignDay
7,-20.0
8,-20.000007492051315
9,-20.00000192453833
10,0.0
11,0.0
12,114.8995167167957
13,-5.103011746453764
2,1,12,21, 0, 8,15.00,30.00,WinterDesignDay
7,-20.0
8,-20.000007492051315
9,-20.00000192453833
10,0.0
11,0.0
12,116.88872333345789
13,-2.2941421377513486
2,1,12,21, 0, 8,30.00,45.00,WinterDesignDay
7,-20.0
8,-20.000007492051315
9,-20.00000192453833
10,0.0
11,0.0
12,118.94274932891784
13,0.46489628434053067
2,1,12,21, 0, 8,45.00,60.00,WinterDesignDay
7,-20.0
8,-20.000007492051315
9,-20.00000192453833
10,0.0
11,0.0
12,121.0696573884951
13,3.168796441386601
2,1,12,21, 0, 8, 0.00,60.00,WinterDesignDay
100,280443208.37901148
137,0.0
2,1,12,21, 0, 9, 0.00,15.00,WinterDesignDay
7,-20.0
8,-20.000007492051315
9,-20.00000192453833
10,0.0
11,0.0
12,123.27761687451744
13,5.81173029215975
2,1,12,21, 0, 9,15.00,30.00,WinterDesignDay
7,-20.0
8,-20.000007492051315
9,-20.00000192453833
10,0.0
11,0.0
12,125.57488085639896
13,8.38729694016313
2,1,12,21, 0, 9,30.00,45.00,WinterDesignDay
7,-20.0
8,-20.000007492051315
9,-20.00000192453833
10,0.0
11,0.0
12,127.96972670632806
13,10.888472906870442
2,1,12,21, 0, 9,45.00,60.00,WinterDesignDay
7,-20.0
8,-20.000007492051315
9,-20.00000192453833
10,0.0
11,0.0
12,130.47035312326939
13,13.307567463963743
2,1,12,21, 0, 9, 0.00,60.00,WinterDesignDay
100,280443208.37902685
137,0.0
2,1,12,21, 0,10, 0.00,15.00,WinterDesignDay
7,-20.0
8,-20.000007492051315
9,-20.00000192453833
10,0.0
11,0.0
12,133.08472532862954
13,15.636187075415926
2,1,12,21, 0,10,15.00,30.00,WinterDesignDay
7,-20.0
8,-20.000007492051315
9,-20.00000192453833
10,0.0
11,0.0
12,135.82035979639927
13,17.865214356662354
2,1,12,21, 0,10,30.00,45.00,WinterDesignDay
7,-20.0
8,-20.000007492051315
9,-20.00000192453833
10,0.0
11,0.0
12,138.68404075515293
13,19.984808446590369
2,1,12,21, 0,10,45.00,60.00,WinterDesignDay
7,-20.0
8,-20.000007492051315
9,-20.00000192453833
10,0.0
11,0.0
12,141.6814635111577
13,21.984435158404574
2,1,12,21, 0,10, 0.00,60.00,WinterDesignDay
100,280443208.3790384
137,0.0
2,1,12,21, 0,11, 0.00,15.00,WinterDesignDay
7,-20.0
8,-20.000007492051315
9,-20.00000192453833
10,0.0
11,0.0
12,144.81680517506113
13,23.85293646126354
2,1,12,21, 0,11,15.00,30.00,WinterDesignDay
7,-20.0
8,-20.000007492051315
9,-20.00000192453833
10,0.0
11,0.0
12,148.09223234585077
13,25.57864933896741
2,1,12,21, 0,11,30.00,45.00,WinterDesignDay
7,-20.0
8,-20.000007492051315
9,-20.00000192453833
10,0.0
11,0.0
12,151.50736804871773
13,27.14958333081761
2,1,12,21, 0,11,45.00,60.00,WinterDesignDay
7,-20.0
8,-20.000007492051315
9,-20.00000192453833
10,0.0
11,0.0
12,155.05875622132457
13,28.553663462202299
2,1,12,21, 0,11, 0.00,60.00,WinterDesignDay
100,280443208.3790428
137,0.0
2,1,12,21, 0,12, 0.00,15.00,WinterDesignDay
7,-20.0
8,-20.000007492051315
9,-20.00000192453833
10,0.0
11,0.0
12,158.7393793919623
13,29.779040268234846
2,1,12,21, 0,12,15.00,30.00,WinterDesignDay
7,-20.0
8,-20.000007492051315
9,-20.00000192453833
10,0.0
11,0.0
12,162.5383002229278
13,30.814460970178858
2,1,12,21, 0,12,30.00,45.00,WinterDesignDay
7,-20.0
8,-20.000007492051315
9,-20.00000192453833
10,0.0
11,0.0
12,166.44050501725676
13,31.649685977482237
2,1,12,21, 0,12,45.00,60.00,WinterDesignDay
7,-20.0
8,-20.000007492051315
9,-20.00000192453833
10,0.0
11,0.0
12,170.42702128236145
13,32.275924047674589
2,1,12,21, 0,12, 0.00,60.00,WinterDesignDay
100,280443208.37904176
137,0.0
2,1,12,21, 0,13, 0.00,15.00,WinterDesignDay
7,-20.0
8,-20.000007492051315
9,-20.00000192453833
10,0.0
11,0.0
12,174.47535777554209
13,32.686249862574808
2,1,12,21, 0,13,15.00,30.00,WinterDesignDay
7,-20.0
8,-20.000007492051315
9,-20.00000192453833
10,0.0
11,0.0
12,178.5602741466185
13,32.875962251501977
2,1,12,21, 0,13,30.00,45.00,WinterDesignDay
7,-20.0
8,-20.000007492051315
9,-20.00000192453833
10,0.0
11,0.0
12,182.6548345565909
13,32.842842323369207
2,1,12,21, 0,13,45.00,60.00,WinterDesignDay
7,-20.0
8,-20.000007492051315
9,-20.00000192453833
10,0.0
11,0.0
12,186.73164753490284
13,32.58727955024313
2,1,12,21, 0,13, 0.00,60.00,WinterDesignDay
100,280443208.37905457
137,0.0
2,1,12,21, 0,14, 0.00,15.00,WinterDesignDay
7,-20.0
8,-20.000007492051315
9,-20.00000192453833
10,0.0
11,0.0
12,190.7641572941956
13,32.112249438304619
2,1,12,21, 0,14,15.00,30.00,WinterDesignDay
7,-20.0
8,-20.000007492051315
9,-20.00000192453833
10,0.0
11,0.0
12,194.7278411196617
13,31.42314571953579
2,1,12,21, 0,14,30.00,45.00,WinterDesignDay
7,-20.0
8,-20.000007492051315
9,-20.00000192453833
10,0.0
11,0.0
12,198.60118668459175
13,30.527488620822667
2,1,12,21, 0,14,45.00,60.00,WinterDesignDay
7,-20.0
8,-20.000007492051315
9,-20.00000192453833
10,0.0
11,0.0
12,202.3663661004113
13,29.43454457354639
2,1,12,21, 0,14, 0.00,60.00,WinterDesignDay
100,280443208.3790513
137,0.0
2,1,12,21, 0,15, 0.00,15.00,WinterDesignDay
7,-20.0
8,-20.000007492051315
9,-20.00000192453833
10,0.0
11,0.0
12,206.00957730544352
13,28.154899199083496
2,1,12,21, 0,15,15.00,30.00,WinterDesignDay
7,-20.0
8,-20.000007492051315
9,-20.00000192453833
10,0.0
11,0.0
12,209.52107377338013
13,26.700024285494878
2,1,12,21, 0,15,30.00,45.00,WinterDesignDay
7,-20.0
8,-20.000007492051315
9,-20.00000192453833
10,0.0
11,0.0
12,212.89493994456775
13,25.081872447504329
2,1,12,21, 0,15,45.00,60.00,WinterDesignDay
7,-20.0
8,-20.000007492051315
9,-20.00000192453833
10,0.0
11,0.0
12,216.12868796734584
13,23.3125229349024
2,1,12,21, 0,15, 0.00,60.00,WinterDesignDay
100,280443208.3790474
137,0.0
2,1,12,21, 0,16, 0.00,15.00,WinterDesignDay
7,-20.0
8,-20.000007492051315
9,-20.00000192453833
10,0.0
11,0.0
12,219.22275278992729
13,21.40389130436853
2,1,12,21, 0,16,15.00,30.00,WinterDesignDay
7,-20.0
8,-20.000007492051315
9,-20.00000192453833
10,0.0
11,0.0
12,222.1799523446663
13,19.36750635811728
2,1,12,21, 0,16,30.00,45.00,WinterDesignDay
7,-20.0
8,-20.000007492051315
9,-20.00000192453833
10,0.0
11,0.0
12,225.0049633581115
13,17.214350885991299
2,1,12,21, 0,16,45.00,60.00,WinterDesignDay
7,-20.0
8,-20.000007492051315
9,-20.00000192453833
10,0.0
11,0.0
12,227.7038460725368
13,14.95475850227848
2,1,12,21, 0,16, 0.00,60.00,WinterDesignDay
100,280443208.37906697
137,0.0
2,1,12,21, 0,17, 0.00,15.00,WinterDesignDay
7,-20.0
8,-20.000007492051315
9,-20.00000192453833
10,0.0
11,0.0
12,230.28363600700136
13,12.598356886663879
2,1,12,21, 0,17,15.00,30.00,WinterDesignDay
7,-20.0
8,-20.000007492051315
9,-20.00000192453833
10,0.0
11,0.0
12,232.7520092576483
13,10.154047427715254
2,1,12,21, 0,17,30.00,45.00,WinterDesignDay
7,-20.0
8,-20.000007492051315
9,-20.00000192453833
10,0.0
11,0.0
12,235.1170199463857
13,7.630012018120334
2,1,12,21, 0,17,45.00,60.00,WinterDesignDay
7,-20.0
8,-20.000007492051315
9,-20.00000192453833
10,0.0
11,0.0
12,237.38690378436577
13,5.0337390570519429
2,1,12,21, 0,17, 0.00,60.00,WinterDesignDay
100,280443208.37908115
137,0.0
2,1,12,21, 0,18, 0.00,15.00,WinterDesignDay
7,-20.0
8,-20.000007492051315
9,-20.00000192453833
10,0.0
11,0.0
12,239.5699395593939
13,2.372062212715031
2,1,12,21, 0,18,15.00,30.00,WinterDesignDay
7,-20.0
8,-20.000007492051315
9,-20.00000192453833
10,0.0
11,0.0
12,241.67435991874283
13,-0.3487930413200233
2,1,12,21, 0,18,30.00,45.00,WinterDesignDay
7,-20.0
8,-20.000007492051315
9,-20.00000192453833
10,0.0
11,0.0
12,243.70830346471517
13,-3.1231588010057655
2,1,12,21, 0,18,45.00,60.00,WinterDesignDay
7,-20.0
8,-20.000007492051315
9,-20.00000192453833
10,0.0
11,0.0
12,245.6798014450623
13,-5.94587260868197
2,1,12,21, 0,18, 0.00,60.00,WinterDesignDay
100,280443208.37909409
137,0.0
2,1,12,21, 0,19, 0.00,15.00,WinterDesignDay
7,-20.0
8,-20.000007492051315
9,-20.00000192453833
10,0.0
11,0.0
12,247.5967939031574
13,-8.812225537461947
2,1,12,21, 0,19,15.00,30.00,WinterDesignDay
7,-20.0
8,-20.000007492051315
9,-20.00000192453833
10,0.0
11,0.0
12,249.4671718892568
13,-11.717911488974517
2,1,12,21, 0,19,30.00,45.00,WinterDesignDay
7,-20.0
8,-20.000007492051315
9,-20.00000192453833
10,0.0
11,0.0
12,251.29884416725558
13,-14.658978160465067
2,1,12,21, 0,19,45.00,60.00,WinterDesignDay
7,-20.0
8,-20.000007492051315
9,-20.00000192453833
10,0.0
11,0.0
12,253.09982880968955
13,-17.631779697162949
2,1,12,21, 0,19, 0.00,60.00,WinterDesignDay
100,280443208.3790997
137,0.0
2,1,12,21, 0,20, 0.00,15.00,WinterDesignDay
7,-20.0
8,-20.000007492051315
9,-20.00000192453833
10,0.0
11,0.0
12,254.87837226163667
13,-20.63293067392384
2,1,12,21, 0,20,15.00,30.00,WinterDesignDay
7,-20.0
8,-20.000007492051315
9,-20.00000192453833
10,0.0
11,0.0
12,256.6431010560239
13,-23.659260703396805
2,1,12,21, 0,20,30.00,45.00,WinterDesignDay
7,-20.0
8,-20.000007492051315
9,-20.00000192453833
10,0.0
11,0.0
12,258.40321466584649
13,-26.707768598875835
2,1,12,21, 0,20,45.00,60.00,WinterDesignDay
7,-20.0
8,-20.000007492051315
9,-20.00000192453833
10,0.0
11,0.0
12,260.16873242065517
13,-29.775574570814148
2,1,12,21, 0,20, 0.00,60.00,WinterDesignDay
100,280443208.3790862
137,0.0
2,1,12,21, 0,21, 0.00,15.00,WinterDesignDay
7,-20.0
8,-20.000007492051315
9,-20.00000192453833
10,0.0
11,0.0
12,261.95081366986406
13,-32.85986832862391
2,1,12,21, 0,21,15.00,30.00,WinterDesignDay
7,-20.0
8,-20.000007492051315
9,-20.00000192453833
10,0.0
11,0.0
12,263.7621795048866
13,-35.95785007854565
2,1,12,21, 0,21,30.00,45.00,WinterDesignDay
7,-20.0
8,-20.000007492051315
9,-20.00000192453833
10,0.0
11,0.0
12,265.6176780621954
13,-39.06666007240491
2,1,12,21, 0,21,45.00,60.00,WinterDesignDay
7,-20.0
8,-20.000007492051315
9,-20.00000192453833
10,0.0
11,0.0
12,267.53505652467916
13,-42.18329027133963
2,1,12,21, 0,21, 0.00,60.00,WinterDesignDay
100,280443208.37909266
137,0.0
2,1,12,21, 0,22, 0.00,15.00,WinterDesignDay
7,-20.0
8,-20.000007492051315
9,-20.00000192453833
10,0.0
11,0.0
12,269.536036124558
13,-45.30446833102425
2,1,12,21, 0,22,15.00,30.00,WinterDesignDay
7,-20.0
8,-20.000007492051315
9,-20.00000192453833
10,0.0
11,0.0
12,271.64783977588436
13,-48.426498588502507
2,1,12,21, 0,22,30.00,45.00,WinterDesignDay
7,-20.0
8,-20.000007492051315
9,-20.00000192453833
10,0.0
11,0.0
12,273.90540943280879
13,-51.54503540042673
2,1,12,21, 0,22,45.00,60.00,WinterDesignDay
7,-20.0
8,-20.000007492051315
9,-20.00000192453833
10,0.0
11,0.0
12,276.354696570766
13,-54.65474800000845
2,1,12,21, 0,22, 0.00,60.00,WinterDesignDay
100,280443208.37909826
137,0.0
2,1,12,21, 0,23, 0.00,15.00,WinterDesignDay
7,-20.0
8,-20.000007492051315
9,-20.00000192453833
10,0.0
11,0.0
12,279.0576580390009
13,-57.748807163173527
2,1,12,21, 0,23,15.00,30.00,WinterDesignDay
7,-20.0
8,-20.000007492051315
9,-20.00000192453833
10,0.0
11,0.0
12,282.1000171860619
13,-60.81807091696953
2,1,12,21, 0,23,30.00,45.00,WinterDesignDay
7,-20.0
8,-20.000007492051315
9,-20.00000192453833
10,0.0
11,0.0
12,285.6035813343038
13,-63.849746259243079
2,1,12,21, 0,23,45.00,60.00,WinterDesignDay
7,-20.0
8,-20.000007492051315
9,-20.00000192453833
10,0.0
11,0.0
12,289.74610314279297
13,-66.8251100679812
2,1,12,21, 0,23, 0.00,60.00,WinterDesignDay
100,280443208.379094
137,0.0
2,1,12,21, 0,24, 0.00,15.00,WinterDesignDay
7,-20.0
8,-20.000007492051315
9,-20.00000192453833
10,0.0
11,0.0
12,294.7933330742561
13,-69.71549543444906
2,1,12,21, 0,24,15.00,30.00,WinterDesignDay
7,-20.0
8,-20.000007492051315
9,-20.00000192453833
10,0.0
11,0.0
12,301.1487297677487
13,-72.47504438121894
2,1,12,21, 0,24,30.00,45.00,WinterDesignDay
7,-20.0
8,-20.000007492051315
9,-20.00000192453833
10,0.0
11,0.0
12,309.4185648462183
13,-75.02763667257541
2,1,12,21, 0,24,45.00,60.00,WinterDesignDay
7,-20.0
8,-20.000007492051315
9,-20.00000192453833
10,0.0
11,0.0
12,320.44165612182646
13,-77.24507908783656
2,1,12,21, 0,24, 0.00,60.00,WinterDesignDay
100,280443208.379093
137,0.0
1,DENVER_STAPLETON ANN CLG .4% CONDNS DB=>MWB,  33.63, -84.43,  -5.00, 308.00
2,1, 7,21, 0, 1, 0.00,15.00,SummerDesignDay
7,21.408
8,0.8322939007682341
9,10.923540822075783
10,0.0
11,0.0
12,8.309106039344254
13,-35.3167481534325
2,1, 7,21, 0, 1,15.00,30.00,SummerDesignDay
7,21.18
8,0.8322987419154665
9,10.82782267224443
10,0.0
11,0.0
12,4.0181578961869299
13,-35.65211770531821
2,1, 7,21, 0, 1,30.00,45.00,SummerDesignDay
7,20.952
8,0.8323023716100667
9,10.731787171923177
10,0.0
11,0.0
12,0.3024817527475195
13,-35.75338284595581
2,1, 7,21, 0, 1,45.00,60.00,SummerDesignDay
7,20.724000000000005
8,0.8323073876278355
9,10.635435972876357
10,0.0
11,0.0
12,4.620871629213268
13,-35.61922213303729
2,1, 7,21, 0, 1, 0.00,60.00,SummerDesignDay
100,0.0
137,19309614.209128623
2,1, 7,21, 0, 2, 0.00,15.00,SummerDesignDay
7,20.572000000000004
8,0.832297044431209
9,10.57102196634094
10,0.0
11,0.0
12,8.90518858019563
13,-35.25138418580962
2,1, 7,21, 0, 2,15.00,30.00,SummerDesignDay
7,20.42
8,0.8323066894741542
9,10.506473007262486
10,0.0
11,0.0
12,13.125373246440962
13,-34.65457699055794
2,1, 7,21, 0, 2,30.00,45.00,SummerDesignDay
7,20.268
8,0.8322954924538666
9,10.44177586489044
10,0.0
11,0.0
12,17.254559128609566
13,-33.83617869430104
2,1, 7,21, 0, 2,45.00,60.00,SummerDesignDay
7,20.116
8,0.832305420375477
9,10.376942949890447
10,0.0
11,0.0
12,21.27013140056001
13,-32.80581000603452
2,1, 7,21, 0, 2, 0.00,60.00,SummerDesignDay
100,0.0
137,7507596.3397996569
2,1, 7,21, 0, 3, 0.00,15.00,SummerDesignDay
7,20.002000000000004
8,0.8323073484840361
9,10.328223256130713
10,0.0
11,0.0
12,25.15433822966211
13,-31.574822853590477
2,1, 7,21, 0, 3,15.00,30.00,SummerDesignDay
7,19.888
8,0.8322891309134131
9,10.27941251529801
10,0.0
11,0.0
12,28.89445814814187
13,-30.155762749192517
2,1, 7,21, 0, 3,30.00,45.00,SummerDesignDay
7,19.774000000000006
8,0.8322907740890536
9,10.230531764578063
10,0.0
11,0.0
12,32.48259116445063
13,-28.561854915646135
2,1, 7,21, 0, 3,45.00,60.00,SummerDesignDay
7,19.660000000000005
8,0.832292811238445
9,10.181569970639515
10,0.0
11,0.0
12,35.91517762787129
13,-26.8065505092749
2,1, 7,21, 0, 3, 0.00,60.00,SummerDesignDay
100,0.0
137,533233.5772825274
2,1, 7,21, 0, 4, 0.00,15.00,SummerDesignDay
7,19.546000000000004
8,0.8322956919481144
9,10.132531430043246
10,0.0
11,0.0
12,39.19235710660804
13,-24.90315366729444
2,1, 7,21, 0, 4,15.00,30.00,SummerDesignDay
7,19.432000000000003
8,0.8322977407289002
9,10.083407802438308
10,0.0
11,0.0
12,42.31726691682324
13,-22.86453609730092
2,1, 7,21, 0, 4,30.00,45.00,SummerDesignDay
7,19.318000000000006
8,0.8322992860102413
9,10.034202846646732
10,0.0
11,0.0
12,45.295356220212607
13,-20.70293544180684
2,1, 7,21, 0, 4,45.00,60.00,SummerDesignDay
7,19.204
8,0.8323021961506784
9,9.984915999795828
10,0.0
11,0.0
12,48.13376533919298
13,-18.429827159639595
2,1, 7,21, 0, 4, 0.00,60.00,SummerDesignDay
100,0.0
137,0.0
2,1, 7,21, 0, 5, 0.00,15.00,SummerDesignDay
7,19.128
8,0.8322962437164975
9,9.952010828101955
10,0.0
11,0.0
12,50.840796700743897
13,-16.055856667794715
2,1, 7,21, 0, 5,15.00,30.00,SummerDesignDay
7,19.052
8,0.8322916548473792
9,9.919064968244602
10,0.0
11,0.0
12,53.4254861711595
13,-13.590818048177134
2,1, 7,21, 0, 5,30.00,45.00,SummerDesignDay
7,18.976000000000004
8,0.8323062389942244
9,9.886097297564426
10,0.0
11,0.0
12,55.89727184056652
13,-11.043666771862798
2,1, 7,21, 0, 5,45.00,60.00,SummerDesignDay
7,18.900000000000003
8,0.8323015143228647
9,9.853082653065592
10,0.0
11,0.0
12,58.265750696093629
13,-8.4225558311849
2,1, 7,21, 0, 5, 0.00,60.00,SummerDesignDay
100,0.0
137,0.0
2,1, 7,21, 0, 6, 0.00,15.00,SummerDesignDay
7,18.976000000000004
8,0.8323062389942244
9,9.886097297564426
10,0.0
11,0.0
12,60.54051078347372
13,-5.734886839527163
2,1, 7,21, 0, 6,15.00,30.00,SummerDesignDay
7,19.052
8,0.8322916548473792
9,9.919064968244602
10,0.0
11,0.0
12,62.731026127796358
13,-2.987369724620556
2,1, 7,21, 0, 6,30.00,45.00,SummerDesignDay
7,19.128
8,0.8322962437164975
9,9.952010828101955
10,0.0
11,0.0
12,64.84660284210109
13,-0.1860864368894605
2,1, 7,21, 0, 6,45.00,60.00,SummerDesignDay
7,19.204
8,0.8323021961506784
9,9.984915999795828
10,1.6782976048587473
11,12.295079656753975
12,66.89636677434133
13,2.6634444342536827
2,1, 7,21, 0, 6, 0.00,60.00,SummerDesignDay
100,0.0
137,0.0
2,1, 7,21, 0, 7, 0.00,15.00,SummerDesignDay
7,19.470000000000004
8,0.8322899352446812
9,10.099785281860703
10,17.24310777510344
11,126.32168633925558
12,68.88928527495276
13,5.5562040848368359
2,1, 7,21, 0, 7,15.00,30.00,SummerDesignDay
7,19.736
8,0.8322987235613968
9,10.214226192500158
10,36.125555583881
11,264.65305215381826
12,70.83421796491069
13,8.487612020128847
2,1, 7,21, 0, 7,30.00,45.00,SummerDesignDay
7,20.002000000000004
8,0.8323073484840361
9,10.328223256130713
10,51.88655246153831
11,380.11690762238205
12,72.73999365578723
13,11.45346705745487
2,1, 7,21, 0, 7,45.00,60.00,SummerDesignDay
7,20.268
8,0.8322954924538666
9,10.44177586489044
10,64.27357908909942
11,470.86331556295388
12,74.61551283446197
13,14.449890660119186
2,1, 7,21, 0, 7, 0.00,60.00,SummerDesignDay
100,0.0
137,0.0
2,1, 7,21, 0, 8, 0.00,15.00,SummerDesignDay
7,20.914
8,0.8322907266860964
9,10.715742351704572
10,74.00138096290881
11,542.1284467157052
12,76.46987747179611
13,17.47327202087271
2,1, 7,21, 0, 8,15.00,30.00,SummerDesignDay
7,21.560000000000004
8,0.8323051110693945
9,10.987189872218148
10,81.73792946248021
11,598.8058082248856
12,78.312552513791
13,20.520213917843795
2,1, 7,21, 0, 8,30.00,45.00,SummerDesignDay
7,22.206000000000004
8,0.8322996099751194
9,11.256128198502906
10,87.98291504872836
11,644.5560941193016
12,80.15356651180498
13,23.587477951128915
2,1, 7,21, 0, 8,45.00,60.00,SummerDesignDay
7,22.852000000000005
8,0.8322941185306928
9,11.522597046862665
10,93.09486540947823
11,682.00585076844
12,82.00376279868327
13,26.67192726910587
2,1, 7,21, 0, 8, 0.00,60.00,SummerDesignDay
100,0.0
137,0.0
2,1, 7,21, 0, 9, 0.00,15.00,SummerDesignDay
7,23.574000000000006
8,0.8322942796997371
9,11.81754470030927
10,97.33102316425146
11,713.0396178921776
12,83.87511793372761
13,29.770464226962074
2,1, 7,21, 0, 9,15.00,30.00,SummerDesignDay
7,24.296
8,0.8322936696735205
9,12.109499980222985
10,100.87826563201128
11,739.0264444101111
12,85.78115158466285
13,32.87995946945262
2,1, 7,21, 0, 9,30.00,45.00,SummerDesignDay
7,25.018
8,0.8322945686194134
9,12.398508482646032
10,103.874526107493
11,760.9768190705884
12,87.73746274832763
13,35.997167520338177
2,1, 7,21, 0, 9,45.00,60.00,SummerDesignDay
7,25.740000000000003
8,0.8322941325811406
9,12.68461430086744
10,106.42326908115887
11,779.6487148029614
12,89.76244302389105
13,39.11862181624009
2,1, 7,21, 0, 9, 0.00,60.00,SummerDesignDay
100,0.0
137,0.0
2,1, 7,21, 0,10, 0.00,15.00,SummerDesignDay
7,26.386000000000004
8,0.8322884337676643
9,12.93817789723113
10,108.6032895627899
11,795.6193778113642
12,91.87824133912307
13,42.24049879359467
2,1, 7,21, 0,10,15.00,30.00,SummerDesignDay
7,27.032000000000005
8,0.8323037198612192
9,13.189493577893947
10,110.47542325587424
11,809.3344857981281
12,94.11209047881816
13,45.35843537536658
2,1, 7,21, 0,10,30.00,45.00,SummerDesignDay
7,27.678
8,0.8322974551470784
9,13.43857333089207
10,112.08720987289719
11,821.1423110542781
12,96.49816081851457
13,48.46727573735843
2,1, 7,21, 0,10,45.00,60.00,SummerDesignDay
7,28.324
8,0.832292427875108
9,13.685452913589812
10,113.47618464405231
11,831.317833800145
12,99.08019123953945
13,51.56070936846016
2,1, 7,21, 0,10, 0.00,60.00,SummerDesignDay
100,0.0
137,282560.97692550576
2,1, 7,21, 0,11, 0.00,15.00,SummerDesignDay
7,28.894000000000003
8,0.8323011102120451
9,13.901498665459654
10,114.67223675836689
11,840.0800199443386
12,101.91527610915434
13,54.63073935398283
2,1, 7,21, 0,11,15.00,30.00,SummerDesignDay
7,29.464000000000003
8,0.8322918652567536
9,14.115864880591913
10,115.69932294777822
11,847.6043746693916
12,105.07937783925827
13,57.66688085581176
2,1, 7,21, 0,11,30.00,45.00,SummerDesignDay
7,30.034000000000004
8,0.832300623481399
9,14.328597269024046
10,116.57672811029602
11,854.0321776604538
12,108.6753936270859
13,60.65492361939831
2,1, 7,21, 0,11,45.00,60.00,SummerDesignDay
7,30.604000000000004
8,0.8322900286639079
9,14.539689882602202
10,117.32000256664925
11,859.4773493756711
12,112.84487466025368
13,63.57498114163159
2,1, 7,21, 0,11, 0.00,60.00,SummerDesignDay
100,0.0
137,8063728.057191832
2,1, 7,21, 0,12, 0.00,15.00,SummerDesignDay
7,30.984
8,0.8322958462858997
9,14.679533910074792
10,117.94166468202427
11,864.0315983992019
12,117.78446604761884
13,66.39837093332867
2,1, 7,21, 0,12,15.00,30.00,SummerDesignDay
7,31.364
8,0.8323016696287271
9,14.818665440436938
10,118.45173036990797
11,867.7683005458006
12,123.7666513018014
13,69.0826258884212
2,1, 7,21, 0,12,30.00,45.00,SummerDesignDay
7,31.744
8,0.8322885049959327
9,14.957085216977735
10,118.85811257317919
11,870.7454254286829
12,131.1578255228339
13,71.56377638443311
2,1, 7,21, 0,12,45.00,60.00,SummerDesignDay
7,32.124
8,0.8322946941515248
9,15.09481669720602
10,119.16692112869359
11,873.0077332444986
12,140.40597156686659
13,73.74571642753598
2,1, 7,21, 0,12, 0.00,60.00,SummerDesignDay
100,0.0
137,15252332.704799083
2,1, 7,21, 0,13, 0.00,15.00,SummerDesignDay
7,32.428000000000007
8,0.8322757312577617
9,15.20449336362582
10,119.3826845099502
11,874.5883992431153
12,151.92331713204076
13,75.49039400872255
2,1, 7,21, 0,13,15.00,30.00,SummerDesignDay
7,32.732
8,0.8322971171125496
9,15.313751170149575
10,119.50850853652136
11,875.5101764207432
12,165.75186772358803
13,76.62374318496119
2,1, 7,21, 0,13,30.00,45.00,SummerDesignDay
7,33.036
8,0.8322773577047575
9,15.42254748375957
10,119.54618239459896
11,875.7861722183302
12,181.08998069822045
13,76.98396351997254
2,1, 7,21, 0,13,45.00,60.00,SummerDesignDay
7,33.34
8,0.8322987614156753
9,15.530933510093789
10,119.49623865380521
11,875.4202882001216
12,196.3026179218961
13,76.50866355159318
2,1, 7,21, 0,13, 0.00,60.00,SummerDesignDay
100,0.0
137,26622492.61922033
2,1, 7,21, 0,14, 0.00,15.00,SummerDesignDay
7,33.53
8,0.8323026829342354
9,15.598448657249099
10,119.35797098111797
11,874.4073498245191
12,209.83275399458618
13,75.27893730118986
2,1, 7,21, 0,14,15.00,30.00,SummerDesignDay
7,33.72
8,0.8322645307266157
9,15.665775043139787
10,119.12941063236622
11,872.7329342225764
12,221.01655675761209
13,73.4631856607461
2,1, 7,21, 0,14,30.00,45.00,SummerDesignDay
7,33.910000000000007
8,0.8322680680435599
9,15.73295518096357
10,118.80726028621986
11,870.372885470881
12,229.97698788325935
13,71.23210745609869
2,1, 7,21, 0,14,45.00,60.00,SummerDesignDay
7,34.1
8,0.832271226742987
9,15.799971527819866
10,118.38678113064866
11,867.2924873956018
12,237.14546036283634
13,68.7176254932582
2,1, 7,21, 0,14, 0.00,60.00,SummerDesignDay
100,0.0
137,46865946.01949586
2,1, 7,21, 0,15, 0.00,15.00,SummerDesignDay
7,34.1
8,0.832271226742987
9,15.799971527819866
10,117.86162605352992
11,863.4452415396638
12,242.9620246449872
13,66.0106534915546
2,1, 7,21, 0,15,15.00,30.00,SummerDesignDay
7,34.1
8,0.832271226742987
9,15.799971527819866
10,117.22360800574218
11,858.7711702085201
12,247.7794705491135
13,63.17157024440797
2,1, 7,21, 0,15,30.00,45.00,SummerDesignDay
7,34.1
8,0.832271226742987
9,15.799971527819866
10,116.46238766785018
11,853.1945283402201
12,251.85837205253416
13,60.24052139741788
2,1, 7,21, 0,15,45.00,60.00,SummerDesignDay
7,34.1
8,0.832271226742987
9,15.799971527819866
10,115.56505785359599
11,846.6207588772265
12,255.3864924525052
13,57.2447107119047
2,1, 7,21, 0,15, 0.00,60.00,SummerDesignDay
100,0.0
137,74692660.26640272
2,1, 7,21, 0,16, 0.00,15.00,SummerDesignDay
7,33.872
8,0.8322756034817385
9,15.719537792616669
10,114.5155927322305
11,838.9324578114214
12,258.4991030418788
13,54.20307598904667
2,1, 7,21, 0,16,15.00,30.00,SummerDesignDay
7,33.644
8,0.8322801832402244
9,15.638863956965304
10,113.29411659838118
11,829.9840172481845
12,261.29472480935376
13,51.129209192377
2,1, 7,21, 0,16,30.00,45.00,SummerDesignDay
7,33.416000000000007
8,0.8322850016389876
9,15.557951899739347
10,111.87592748254848
11,819.5944724517048
12,263.84626465361199
13,48.033184994731559