Program Version,EnergyPlus, Version 9.0.1-bb7ca4f0da, YMD=2020.01.06 13:29
1,5,Environment Title[],Latitude[deg],Longitude[deg],Time Zone[],Elevation[m]
2,8,Day of Simulation[],Month[],Day of Month[],DST Indicator[1=yes 0=no],Hour[],StartMinute[],EndMinute[],DayType
3,5,Cumulative Day of Simulation[],Month[],Day of Month[],DST Indicator[1=yes 0=no],DayType  ! When Daily Report Variables Requested
4,2,Cumulative Days of Simulation[],Month[]  ! When Monthly Report Variables Requested
5,1,Cumulative Days of Simulation[] ! When Run Period Report Variables Requested
6,1,Calendar Year of Simulation[] ! When Annual Report Variables Requested
7,1,Environment,Site Outdoor Air Drybulb Temperature [C] !TimeStep
8,1,Environment,Site Outdoor Air Dewpoint Temperature [C] !TimeStep
9,1,Environment,Site Outdoor Air Wetbulb Temperature [C] !TimeStep
10,1,Environment,Site Diffuse Solar Radiation Rate per Area [W/m2] !TimeStep
11,1,Environment,Site Direct Solar Radiation Rate per Area [W/m2] !TimeStep
12,1,Environment,Site Solar Azimuth Angle [deg] !TimeStep
13,1,Environment,Site Solar Altitude Angle [deg] !TimeStep
100,1,BLOCK 1 FLOORS BLOCK STOREY 0 IDEAL LOADS AIR SYSTEM,Zone Ideal Loads Supply Air Total Heating Energy [J] !Hourly
137,1,BLOCK 1 FLOORS BLOCK STOREY 0 IDEAL LOADS AIR SYSTEM,Zone Ideal Loads Supply Air Total Cooling Energy [J] !Hourly
End of Data Dictionary
1,DENVER_STAPLETON ANN HTG 99.6% CONDNS DB,  35.04,-106.62,  -7.00,1619.00
2,1,12,21, 0, 1, 0.00,15.00,WinterDesignDay
7,-20.0
8,-20.00000101265927
9,-20.000000074348013
10,0.0
11,0.0
12,12.385470361690832
13,-78.19698995047779
2,1,12,21, 0, 1,15.00,30.00,WinterDesignDay
7,-20.0
8,-20.00000101265927
9,-20.000000074348013
10,0.0
11,0.0
12,27.76006300842004
13,-77.13600220369624
2,1,12,21, 0, 1,30.00,45.00,WinterDesignDay
7,-20.0
8,-20.00000101265927
9,-20.000000074348013
10,0.0
11,0.0
12,40.34367751402143
13,-75.40947166056232
2,1,12,21, 0, 1,45.00,60.00,WinterDesignDay
7,-20.0
8,-20.00000101265927
9,-20.000000074348013
10,0.0
11,0.0
12,50.199838486715389
13,-73.22308982777817
2,1,12,21, 0, 1, 0.00,60.00,WinterDesignDay
100,273547302.60883149
137,0.0
2,1,12,21, 0, 2, 0.00,15.00,WinterDesignDay
7,-20.0
8,-20.00000101265927
9,-20.000000074348013
10,0.0
11,0.0
12,57.89738719334731
13,-70.73465074720282
2,1,12,21, 0, 2,15.00,30.00,WinterDesignDay
7,-20.0
8,-20.00000101265927
9,-20.000000074348013
10,0.0
11,0.0
12,64.01625313270999
13,-68.04881218724752
2,1,12,21, 0, 2,30.00,45.00,WinterDesignDay
7,-20.0
8,-20.00000101265927
9,-20.000000074348013
10,0.0
11,0.0
12,69.0041159407796
13,-65.23212625738502
2,1,12,21, 0, 2,45.00,60.00,WinterDesignDay
7,-20.0
8,-20.00000101265927
9,-20.000000074348013
10,0.0
11,0.0
12,73.17839480846243
13,-62.327141877448728
2,1,12,21, 0, 2, 0.00,60.00,WinterDesignDay
100,273547302.60889568
137,0.0
2,1,12,21, 0, 3, 0.00,15.00,WinterDesignDay
7,-20.0
8,-20.00000101265927
9,-20.000000074348013
10,0.0
11,0.0
12,76.75960156197017
13,-59.3617698086562
2,1,12,21, 0, 3,15.00,30.00,WinterDesignDay
7,-20.0
8,-20.00000101265927
9,-20.000000074348013
10,0.0
11,0.0
12,79.9017443948912
13,-56.35494739752171
2,1,12,21, 0, 3,30.00,45.00,WinterDesignDay
7,-20.0
8,-20.00000101265927
9,-20.000000074348013
10,0.0
11,0.0
12,82.71411235362615
13,-53.32000469725101
2,1,12,21, 0, 3,45.00,60.00,WinterDesignDay
7,-20.0
8,-20.00000101265927
9,-20.000000074348013
10,0.0
11,0.0
12,85.27583704876109
13,-50.266686935361537
2,1,12,21, 0, 3, 0.00,60.00,WinterDesignDay
100,273547302.60894206
137,0.0
2,1,12,21, 0, 4, 0.00,15.00,WinterDesignDay
7,-20.0
8,-20.00000101265927
9,-20.000000074348013
10,0.0
11,0.0
12,87.64546205602679
13,-47.202397469425388
2,1,12,21, 0, 4,15.00,30.00,WinterDesignDay
7,-20.0
8,-20.00000101265927
9,-20.000000074348013
10,0.0
11,0.0
12,89.86725483245718
13,-44.132982676052368
2,1,12,21, 0, 4,30.00,45.00,WinterDesignDay
7,-20.0
8,-20.00000101265927
9,-20.000000074348013
10,0.0
11,0.0
12,91.97542276675468
13,-41.06324207386514
2,1,12,21, 0, 4,45.00,60.00,WinterDesignDay
7,-20.0
8,-20.00000101265927
9,-20.000000074348013
10,0.0
11,0.0
12,93.99697579580466
13,-37.99726985272035
2,1,12,21, 0, 4, 0.00,60.00,WinterDesignDay
100,273547302.6089864
137,0.0
2,1,12,21, 0, 5, 0.00,15.00,WinterDesignDay
7,-20.0
8,-20.00000101265927
9,-20.000000074348013
10,0.0
11,0.0
12,95.95370497175155
13,-34.93869065669935
2,1,12,21, 0, 5,15.00,30.00,WinterDesignDay
7,-20.0
8,-20.00000101265927
9,-20.000000074348013
10,0.0
11,0.0
12,97.86357498331073
13,-31.890827724794439
2,1,12,21, 0, 5,30.00,45.00,WinterDesignDay
7,-20.0
8,-20.00000101265927
9,-20.000000074348013
10,0.0
11,0.0
12,99.74172191390969
13,-28.85682706438745
2,1,12,21, 0, 5,45.00,60.00,WinterDesignDay
7,-20.0
8,-20.00000101265927
9,-20.000000074348013
10,0.0
11,0.0
12,101.6011807260961
13,-25.83975273008761
2,1,12,21, 0, 5, 0.00,60.00,WinterDesignDay
100,273547302.6090275
137,0.0
2,1,12,21, 0, 6, 0.00,15.00,WinterDesignDay
7,-20.0
8,-20.00000101265927
9,-20.000000074348013
10,0.0
11,0.0
12,103.45342468038072
13,-22.842663036168845
2,1,12,21, 0, 6,15.00,30.00,WinterDesignDay
7,-20.0
8,-20.00000101265927
9,-20.000000074348013
10,0.0
11,0.0
12,105.30877173496903
13,-19.868674262272437
2,1,12,21, 0, 6,30.00,45.00,WinterDesignDay
7,-20.0
8,-20.00000101265927
9,-20.000000074348013
10,0.0
11,0.0
12,107.17669522614566
13,-16.921016328076648
2,1,12,21, 0, 6,45.00,60.00,WinterDesignDay
7,-20.0
8,-20.00000101265927
9,-20.000000074348013
10,0.0
11,0.0
12,109.06606431016782
13,-14.003083549689658
2,1,12,21, 0, 6, 0.00,60.00,WinterDesignDay
100,273547302.6090482
137,0.0
2,1,12,21, 0, 7, 0.00,15.00,WinterDesignDay
7,-20.0
8,-20.00000101265927
9,-20.000000074348013
10,0.0
11,0.0
12,110.98533159961346
13,-11.11848266956661
2,1,12,21, 0, 7,15.00,30.00,WinterDesignDay
7,-20.0
8,-20.00000101265927
9,-20.000000074348013
10,0.0
11,0.0
12,112.94267979656179
13,-8.271079699271782
2,1,12,21, 0, 7,30.00,45.00,WinterDesignDay
7,-20.0
8,-20.00000101265927
9,-20.000000074348013
10,0.0
11,0.0
12,114.94613504815074
13,-5.465046617738079
2,1,12,21, 0, 7,45.00,60.00,WinterDesignDay
7,-20.0
8,-20.00000101265927
9,-20.000000074348013
10,0.0
11,0.0
12,117.00365166707992
13,-2.7049085491787046
2,1,12,21, 0, 7, 0.00,60.00,WinterDesignDay
100,273547302.6090716
137,0.0
2,1,12,21, 0, 8, 0.00,15.00,WinterDesignDay
7,-20.0
8,-20.00000101265927
9,-20.000000074348013
10,0.0
11,0.0
12,119.12317040359281
13,0.004408353347301884
2,1,12,21, 0, 8,15.00,30.00,WinterDesignDay
7,-20.0
8,-20.00000101265927
9,-20.000000074348013
10,0.0
11,0.0
12,121.31265038772598
13,2.657528517514846
2,1,12,21, 0, 8,30.00,45.00,WinterDesignDay
7,-20.0
8,-20.00000101265927
9,-20.000000074348013
10,0.0
11,0.0
12,123.5800730354096
13,5.248578745816994
2,1,12,21, 0, 8,45.00,60.00,WinterDesignDay
7,-20.0
8,-20.00000101265927
9,-20.000000074348013
10,0.0
11,0.0
12,125.93341456103012
13,7.771141482934034
2,1,12,21, 0, 8, 0.00,60.00,WinterDesignDay
100,273547302.6090867
137,0.0
2,1,12,21, 0, 9, 0.00,15.00,WinterDesignDay
7,-20.0
8,-20.00000101265927
9,-20.000000074348013
10,0.0
11,0.0
12,128.38058227063415
13,10.218211579430335
2,1,12,21, 0, 9,15.00,30.00,WinterDesignDay
7,-20.0
8,-20.00000101265927
9,-20.000000074348013
10,0.0
11,0.0
12,130.92930861920034
13,12.582159468203736
2,1,12,21, 0, 9,30.00,45.00,WinterDesignDay
7,-20.0
8,-20.00000101265927
9,-20.000000074348013
10,0.0
11,0.0
12,133.5869963018098
13,14.854704726268114
2,1,12,21, 0, 9,45.00,60.00,WinterDesignDay
7,-20.0
8,-20.00000101265927
9,-20.000000074348013
10,0.0
11,0.0
12,136.3605077342647
13,17.026905184260437
2,1,12,21, 0, 9, 0.00,60.00,WinterDesignDay
100,273547302.60909846
137,0.0
2,1,12,21, 0,10, 0.00,15.00,WinterDesignDay
7,-20.0
8,-20.00000101265927
9,-20.000000074348013
10,0.0
11,0.0
12,139.2558936163271
13,19.089167988012276
2,1,12,21, 0,10,15.00,30.00,WinterDesignDay
7,-20.0
8,-20.00000101265927
9,-20.000000074348013
10,0.0
11,0.0
12,142.27805842126024
13,21.031290153127676
2,1,12,21, 0,10,30.00,45.00,WinterDesignDay
7,-20.0
8,-20.00000101265927
9,-20.000000074348013
10,0.0
11,0.0
12,145.43036620892912
13,22.8425369288625
2,1,12,21, 0,10,45.00,60.00,WinterDesignDay
7,-20.0
8,-20.00000101265927
9,-20.000000074348013
10,0.0
11,0.0
12,148.71419856812779
13,24.511766336532703
2,1,12,21, 0,10, 0.00,60.00,WinterDesignDay
100,273547302.60910847
137,0.0
2,1,12,21, 0,11, 0.00,15.00,WinterDesignDay
7,-20.0
8,-20.00000101265927
9,-20.000000074348013
10,0.0
11,0.0
12,152.12848779332738
13,26.027607113554688
2,1,12,21, 0,11,15.00,30.00,WinterDesignDay
7,-20.0
8,-20.00000101265927
9,-20.000000074348013
10,0.0
11,0.0
12,155.66926184280769
13,27.37869449709351
2,1,12,21, 0,11,30.00,45.00,WinterDesignDay
7,-20.0
8,-20.00000101265927
9,-20.000000074348013
10,0.0
11,0.0
12,159.32925130485078
13,28.553963454787597
2,1,12,21, 0,11,45.00,60.00,WinterDesignDay
7,-20.0
8,-20.00000101265927
9,-20.000000074348013
10,0.0
11,0.0
12,163.0976192814247
13,29.542992066007437
2,1,12,21, 0,11, 0.00,60.00,WinterDesignDay
100,273547302.6091363
137,0.0
2,1,12,21, 0,12, 0.00,15.00,WinterDesignDay
7,-20.0
8,-20.00000101265927
9,-20.000000074348013
10,0.0
11,0.0
12,166.95987851611148
13,30.336379276796078
2,1,12,21, 0,12,15.00,30.00,WinterDesignDay
7,-20.0
8,-20.00000101265927
9,-20.000000074348013
10,0.0
11,0.0
12,170.89805195247124
13,30.926132407234616
2,1,12,21, 0,12,30.00,45.00,WinterDesignDay
7,-20.0
8,-20.00000101265927
9,-20.000000074348013
10,0.0
11,0.0
12,174.8911105986695
13,31.306032461630175
2,1,12,21, 0,12,45.00,60.00,WinterDesignDay
7,-20.0
8,-20.00000101265927
9,-20.000000074348013
10,0.0
11,0.0
12,178.91568706641864
13,31.471941667163294
2,1,12,21, 0,12, 0.00,60.00,WinterDesignDay
100,273547302.60914579
137,0.0
2,1,12,21, 0,13, 0.00,15.00,WinterDesignDay
7,-20.0
8,-20.00000101265927
9,-20.000000074348013
10,0.0
11,0.0
12,182.94702013389239
13,31.422019569707538
2,1,12,21, 0,13,15.00,30.00,WinterDesignDay
7,-20.0
8,-20.00000101265927
9,-20.000000074348013
10,0.0
11,0.0
12,186.96004488024924
13,31.156822128529535
2,1,12,21, 0,13,30.00,45.00,WinterDesignDay
7,-20.0
8,-20.00000101265927
9,-20.000000074348013
10,0.0
11,0.0
12,190.93051530164159
13,30.67927158798131
2,1,12,21, 0,13,45.00,60.00,WinterDesignDay
7,-20.0
8,-20.00000101265927
9,-20.000000074348013
10,0.0
11,0.0
12,194.83603996353146
13,29.994500874823
2,1,12,21, 0,13, 0.00,60.00,WinterDesignDay
100,273547302.60915318
137,0.0
2,1,12,21, 0,14, 0.00,15.00,WinterDesignDay
7,-20.0
8,-20.00000101265927
9,-20.000000074348013
10,0.0
11,0.0
12,198.65692810701797
13,29.10959142354434
2,1,12,21, 0,14,15.00,30.00,WinterDesignDay
7,-20.0
8,-20.00000101265927
9,-20.000000074348013
10,0.0
11,0.0
12,202.3767786269177
13,28.033234488691613
2,1,12,21, 0,14,30.00,45.00,WinterDesignDay
7,-20.0
8,-20.00000101265927
9,-20.000000074348013
10,0.0
11,0.0
12,205.9827875405473
13,26.77535126070701
2,1,12,21, 0,14,45.00,60.00,WinterDesignDay
7,-20.0
8,-20.00000101265927
9,-20.000000074348013
10,0.0
11,0.0
12,209.46579011916513
13,25.346706278559929
2,1,12,21, 0,14, 0.00,60.00,WinterDesignDay
100,273547302.60915628
137,0.0
2,1,12,21, 0,15, 0.00,15.00,WinterDesignDay
7,-20.0
8,-20.00000101265927
9,-20.000000074348013
10,0.0
11,0.0
12,212.82008367338603
13,23.758543028594479
2,1,12,21, 0,15,15.00,30.00,WinterDesignDay
7,-20.0
8,-20.00000101265927
9,-20.000000074348013
10,0.0
11,0.0
12,216.0430926072723
13,22.02226232408164
2,1,12,21, 0,15,30.00,45.00,WinterDesignDay
7,-20.0
8,-20.00000101265927
9,-20.000000074348013
10,0.0
11,0.0
12,219.1349396815143
13,20.149155186254224
2,1,12,21, 0,15,45.00,60.00,WinterDesignDay
7,-20.0
8,-20.00000101265927
9,-20.000000074348013
10,0.0
11,0.0
12,222.09798008551688
13,18.150194090381939
2,1,12,21, 0,15, 0.00,60.00,WinterDesignDay
100,273547302.6091615
137,0.0
2,1,12,21, 0,16, 0.00,15.00,WinterDesignDay
7,-20.0
8,-20.00000101265927
9,-20.000000074348013
10,0.0
11,0.0
12,224.93634236768683
13,16.035880472898076
2,1,12,21, 0,16,15.00,30.00,WinterDesignDay
7,-20.0
8,-20.00000101265927
9,-20.000000074348013
10,0.0
11,0.0
12,227.6555063819811
13,13.816142537825075
2,1,12,21, 0,16,30.00,45.00,WinterDesignDay
7,-20.0
8,-20.00000101265927
9,-20.000000074348013
10,0.0
11,0.0
12,230.26193579809613
13,11.500275428822697
2,1,12,21, 0,16,45.00,60.00,WinterDesignDay
7,-20.0
8,-20.00000101265927
9,-20.000000074348013
10,0.0
11,0.0
12,232.762772723354
13,9.096915306498043
2,1,12,21, 0,16, 0.00,60.00,WinterDesignDay
100,273547302.6091691
137,0.0
2,1,12,21, 0,17, 0.00,15.00,WinterDesignDay
7,-20.0
8,-20.00000101265927
9,-20.000000074348013
10,0.0
11,0.0
12,235.16559493301748
13,6.614039307447709
2,1,12,21, 0,17,15.00,30.00,WinterDesignDay
7,-20.0
8,-20.00000101265927
9,-20.000000074348013
10,0.0
11,0.0
12,237.47823183268737
13,4.058984342595941
2,1,12,21, 0,17,30.00,45.00,WinterDesignDay
7,-20.0
8,-20.00000101265927
9,-20.000000074348013
10,0.0
11,0.0
12,239.70863303825008
13,1.4384789030817296
2,1,12,21, 0,17,45.00,60.00,WinterDesignDay
7,-20.0
8,-20.00000101265927
9,-20.000000074348013
10,0.0
11,0.0
12,241.86478276410464
13,-1.2413167258047109
2,1,12,21, 0,17, 0.00,60.00,WinterDesignDay
100,273547302.60917326
137,0.0
2,1,12,21, 0,18, 0.00,15.00,WinterDesignDay
7,-20.0
8,-20.00000101265927
9,-20.000000074348013
10,0.0
11,0.0
12,243.9546535425658
13,-3.9747653076666187
2,1,12,21, 0,18,15.00,30.00,WinterDesignDay
7,-20.0
8,-20.00000101265927
9,-20.000000074348013
10,0.0
11,0.0
12,245.98619376373623
13,-6.756705037905454
2,1,12,21, 0,18,30.00,45.00,WinterDesignDay
7,-20.0
8,-20.00000101265927
9,-20.000000074348013
10,0.0
11,0.0
12,247.96734486226027
13,-9.582401131383062
2,1,12,21, 0,18,45.00,60.00,WinterDesignDay
7,-20.0
8,-20.00000101265927
9,-20.000000074348013
10,0.0
11,0.0
12,249.90608553640363
13,-12.447497612240696
2,1,12,21, 0,18, 0.00,60.00,WinterDesignDay
100,273547302.6091678
137,0.0
2,1,12,21, 0,19, 0.00,15.00,WinterDesignDay
7,-20.0
8,-20.00000101265927
9,-20.000000074348013
10,0.0
11,0.0
12,251.8105021126762
13,-15.347969758673268
2,1,12,21, 0,19,15.00,30.00,WinterDesignDay
7,-20.0
8,-20.00000101265927
9,-20.000000074348013
10,0.0
11,0.0
12,253.68888609352124
13,-18.280077199062956
2,1,12,21, 0,19,30.00,45.00,WinterDesignDay
7,-20.0
8,-20.00000101265927
9,-20.000000074348013
10,0.0
11,0.0
12,255.54986214963686
13,-21.240317248782725
2,1,12,21, 0,19,45.00,60.00,WinterDesignDay
7,-20.0
8,-20.00000101265927
9,-20.000000074348013
10,0.0
11,0.0
12,257.4025525280035
13,-24.225377675765637
2,1,12,21, 0,19, 0.00,60.00,WinterDesignDay
100,273547302.60916867
137,0.0
2,1,12,21, 0,20, 0.00,15.00,WinterDesignDay
7,-20.0
8,-20.00000101265927
9,-20.000000074348013
10,0.0
11,0.0
12,259.2567873337098
13,-27.23208763642489
2,1,12,21, 0,20,15.00,30.00,WinterDesignDay
7,-20.0
8,-20.00000101265927
9,-20.000000074348013
10,0.0
11,0.0
12,261.12337485398998
13,-30.257364966141489
2,1,12,21, 0,20,30.00,45.00,WinterDesignDay
7,-20.0
8,-20.00000101265927
9,-20.000000074348013
10,0.0
11,0.0
12,263.0144527093182
13,-33.298157248878997
2,1,12,21, 0,20,45.00,60.00,WinterDesignDay
7,-20.0
8,-20.00000101265927
9,-20.000000074348013
10,0.0
11,0.0
12,264.94395019975988
13,-36.351372991842719
2,1,12,21, 0,20, 0.00,60.00,WinterDesignDay
100,273547302.6091703
137,0.0
2,1,12,21, 0,21, 0.00,15.00,WinterDesignDay
7,-20.0
8,-20.00000101265927
9,-20.000000074348013
10,0.0
11,0.0
12,266.9282064406574
13,-39.41379757834368
2,1,12,21, 0,21,15.00,30.00,WinterDesignDay
7,-20.0
8,-20.00000101265927
9,-20.000000074348013
10,0.0
11,0.0
12,268.98681043879028
13,-42.4819861135942
2,1,12,21, 0,21,30.00,45.00,WinterDesignDay
7,-20.0
8,-20.00000101265927
9,-20.000000074348013
10,0.0
11,0.0
12,271.143762521204
13,-45.5521212223737
2,1,12,21, 0,21,45.00,60.00,WinterDesignDay
7,-20.0
8,-20.00000101265927
9,-20.000000074348013
10,0.0
11,0.0
12,273.4291086745593
13,-48.619817283227387
2,1,12,21, 0,21, 0.00,60.00,WinterDesignDay
100,273547302.6091685
137,0.0
2,1,12,21, 0,22, 0.00,15.00,WinterDesignDay
7,-20.0
8,-20.00000101265927
9,-20.000000074348013
10,0.0
11,0.0
12,275.8812822077425
13,-51.67984168846484
2,1,12,21, 0,22,15.00,30.00,WinterDesignDay
7,-20.0
8,-20.00000101265927
9,-20.000000074348013
10,0.0
11,0.0
12,278.55051998558136
13,-54.72570525529097
2,1,12,21, 0,22,30.00,45.00,WinterDesignDay
7,-20.0
8,-20.00000101265927
9,-20.000000074348013
10,0.0
11,0.0
12,281.50393349858737
13,-57.74904193461388
2,1,12,21, 0,22,45.00,60.00,WinterDesignDay
7,-20.0
8,-20.00000101265927
9,-20.000000074348013
10,0.0
11,0.0
12,284.83315042430868
13,-60.738641495019489
2,1,12,21, 0,22, 0.00,60.00,WinterDesignDay
100,273547302.6091683
137,0.0
2,1,12,21, 0,23, 0.00,15.00,WinterDesignDay
7,-20.0
8,-20.00000101265927
9,-20.000000074348013
10,0.0
11,0.0
12,288.6659381426851
13,-63.67889785568767
2,1,12,21, 0,23,15.00,30.00,WinterDesignDay
7,-20.0
8,-20.00000101265927
9,-20.000000074348013
10,0.0
11,0.0
12,293.18381854189939
13,-66.5472556041077
2,1,12,21, 0,23,30.00,45.00,WinterDesignDay
7,-20.0
8,-20.00000101265927
9,-20.000000074348013
10,0.0
11,0.0
12,298.64784432993647
13,-69.30992917851616
2,1,12,21, 0,23,45.00,60.00,WinterDesignDay
7,-20.0
8,-20.00000101265927
9,-20.000000074348013
10,0.0
11,0.0
12,305.432015232564
13,-71.91471961137194
2,1,12,21, 0,23, 0.00,60.00,WinterDesignDay
100,273547302.6091733
137,0.0
2,1,12,21, 0,24, 0.00,15.00,WinterDesignDay
7,-20.0
8,-20.00000101265927
9,-20.000000074348013
10,0.0
11,0.0
12,314.04968024342329
13,-74.27947423185634
2,1,12,21, 0,24,15.00,30.00,WinterDesignDay
7,-20.0
8,-20.00000101265927
9,-20.000000074348013
10,0.0
11,0.0
12,325.1097375610251
13,-76.27642266830303
2,1,12,21, 0,24,30.00,45.00,WinterDesignDay
7,-20.0
8,-20.00000101265927
9,-20.000000074348013
10,0.0
11,0.0
12,339.0357310417477
13,-77.72221309528372
2,1,12,21, 0,24,45.00,60.00,WinterDesignDay
7,-20.0
8,-20.00000101265927
9,-20.000000074348013
10,0.0
11,0.0
12,355.393313058611
13,-78.40704736059542
2,1,12,21, 0,24, 0.00,60.00,WinterDesignDay
100,273547302.6091811
137,0.0
1,DENVER_STAPLETON ANN CLG .4% CONDNS DB=>MWB,  35.04,-106.62,  -7.00,1619.00
2,1, 7,21, 0, 1, 0.00,15.00,SummerDesignDay
7,21.408
8,4.102324271406438
9,11.43987354176963
10,0.0
11,0.0
12,0.6486997232642221
13,-34.3413068367629
2,1, 7,21, 0, 1,15.00,30.00,SummerDesignDay
7,21.18
8,4.10232781777911
9,11.354602752093879
10,0.0
11,0.0
12,4.892163570588339
13,-34.19285374377577
2,1, 7,21, 0, 1,30.00,45.00,SummerDesignDay
7,20.952
8,4.102330062754664
9,11.26905988976505
10,0.0
11,0.0
12,9.102194393163448
13,-33.81869975349128
2,1, 7,21, 0, 1,45.00,60.00,SummerDesignDay
7,20.724000000000005
8,4.102333115203549
9,11.183247102025533
10,0.0
11,0.0
12,13.251472321093033
13,-33.223364073468527
2,1, 7,21, 0, 1, 0.00,60.00,SummerDesignDay
100,0.0
137,16481386.797044754
2,1, 7,21, 0, 2, 0.00,15.00,SummerDesignDay
7,20.572000000000004
8,4.102325681722329
9,11.125880431622625
10,0.0
11,0.0
12,17.315541506233413
13,-32.413797373240289
2,1, 7,21, 0, 2,15.00,30.00,SummerDesignDay
7,20.42
8,4.102332751113365
9,11.068405253426395
10,0.0
11,0.0
12,21.273723236878405
13,-31.39900222629879
2,1, 7,21, 0, 2,30.00,45.00,SummerDesignDay
7,20.268
8,4.102325365525222
9,11.01079610907547
10,0.0
11,0.0
12,25.109653747225157
13,-30.189581109864695
2,1, 7,21, 0, 2,45.00,60.00,SummerDesignDay
7,20.116
8,4.102331657529285
9,10.953077728669312
10,0.0
11,0.0
12,28.811448399061196
13,-28.797260095630166
2,1, 7,21, 0, 2, 0.00,60.00,SummerDesignDay
100,0.0
137,5771553.551226729
2,1, 7,21, 0, 3, 0.00,15.00,SummerDesignDay
7,20.002000000000004
8,4.102333565865049
9,10.90970453579878
10,0.0
11,0.0
12,32.371545437141048
13,-27.234430576534739
2,1, 7,21, 0, 3,15.00,30.00,SummerDesignDay
7,19.888
8,4.10232073615676
9,10.866253461092134
10,0.0
11,0.0
12,35.78631277436219
13,-25.513740426339866
2,1, 7,21, 0, 3,30.00,45.00,SummerDesignDay
7,19.774000000000006
8,4.1023223560419519
9,10.82274233333762
10,0.0
11,0.0
12,39.055509627624328
13,-23.64775329827137
2,1, 7,21, 0, 3,45.00,60.00,SummerDesignDay
7,19.660000000000005
8,4.102323525657858
9,10.779162064979348
10,0.0
11,0.0
12,42.18168637611071
13,-21.64868311455978
2,1, 7,21, 0, 3, 0.00,60.00,SummerDesignDay
100,0.0
137,261873.97967963719
2,1, 7,21, 0, 4, 0.00,15.00,SummerDesignDay
7,19.546000000000004
8,4.102325167182462
9,10.735512317040467
10,0.0
11,0.0
12,45.16958803661521
13,-19.528201805278895
2,1, 7,21, 0, 4,15.00,30.00,SummerDesignDay
7,19.432000000000003
8,4.102326641888988
9,10.691796213636259
10,0.0
11,0.0
12,48.02560590487377
13,-17.297312523281947
2,1, 7,21, 0, 4,30.00,45.00,SummerDesignDay
7,19.318000000000006
8,4.1023277601229159
9,10.648007276381348
10,0.0
11,0.0
12,50.757302790955019
13,-14.966277603811398
2,1, 7,21, 0, 4,45.00,60.00,SummerDesignDay
7,19.204
8,4.102330203174259
9,10.604148162669774
10,0.0
11,0.0
12,53.37302221176273
13,-12.54458977241894
2,1, 7,21, 0, 4, 0.00,60.00,SummerDesignDay
100,0.0
137,0.0
2,1, 7,21, 0, 5, 0.00,15.00,SummerDesignDay
7,19.128
8,4.102325811304629
9,10.574864128133754
10,0.0
11,0.0
12,55.881581470815088
13,-10.040975774195424
2,1, 7,21, 0, 5,15.00,30.00,SummerDesignDay
7,19.052
8,4.102322025950277
9,10.545552666307805
10,0.0
11,0.0
12,58.29204228003001
13,-7.463423045653079
2,1, 7,21, 0, 5,30.00,45.00,SummerDesignDay
7,18.976000000000004
8,4.102332296752455
9,10.516219330263145
10,0.0
11,0.0
12,60.61354953560175
13,-4.819221797002467
2,1, 7,21, 0, 5,45.00,60.00,SummerDesignDay
7,18.900000000000003
8,4.102328604240998
9,10.486845097194756
10,0.0
11,0.0
12,62.85522807004271
13,-2.1150166102026359
2,1, 7,21, 0, 5, 0.00,60.00,SummerDesignDay
100,0.0
137,0.0
2,1, 7,21, 0, 6, 0.00,15.00,SummerDesignDay
7,18.976000000000004
8,4.102332296752455
9,10.516219330263145
10,0.0000013070097202499203
11,0.000009575053063355235
12,65.02612783196159
13,0.64313677938376
2,1, 7,21, 0, 6,15.00,30.00,SummerDesignDay
7,19.052
8,4.102322025950277
9,10.545552666307805
10,4.654957135745195
11,34.101859299012399
12,67.13520937714803
13,3.4497125304887548
2,1, 7,21, 0, 6,30.00,45.00,SummerDesignDay
7,19.128
8,4.102325811304629
9,10.574864128133754
10,22.204338294359354
11,162.66728097823754
12,69.19136338305886
13,6.299655515256902
2,1, 7,21, 0, 6,45.00,60.00,SummerDesignDay
7,19.204
8,4.102330203174259
9,10.604148162669774
10,40.19468412641482
11,294.4631760669935
12,71.20345989284172
13,9.18832300443592
2,1, 7,21, 0, 6, 0.00,60.00,SummerDesignDay
100,0.0
137,0.0
2,1, 7,21, 0, 7, 0.00,15.00,SummerDesignDay
7,19.470000000000004
8,4.102321233710775
9,10.70637183763146
10,54.88422659902314
11,402.0776386623751
12,73.18042505722858
13,12.111427641309126
2,1, 7,21, 0, 7,15.00,30.00,SummerDesignDay
7,19.736
8,4.102327349797683
9,10.808228720121864
10,66.4511745604
11,486.8162131314878
12,75.1313452754217
13,15.064981583325613
2,1, 7,21, 0, 7,30.00,45.00,SummerDesignDay
7,20.002000000000004
8,4.102333565865049
9,10.90970453579878
10,75.59277482240678
11,553.7868761927845
12,77.0656009203681
13,18.04524122180533
2,1, 7,21, 0, 7,45.00,60.00,SummerDesignDay
7,20.268
8,4.102325365525222
9,11.01079610907547
10,82.91159906350025
11,607.4040217917019
12,78.99303442160951
13,21.048651443307656
2,1, 7,21, 0, 7, 0.00,60.00,SummerDesignDay
100,0.0
137,0.0
2,1, 7,21, 0, 8, 0.00,15.00,SummerDesignDay
7,20.914
8,4.102321609967561
9,11.254769322663958
10,88.8548623851315
11,650.9439134944435
12,80.9241606009244
13,24.07178791301543
2,1, 7,21, 0, 8,15.00,30.00,SummerDesignDay
7,21.560000000000004
8,4.102331822071899
9,11.496581418662937
10,93.74501377329307
11,686.7687878653349
12,82.8704311459623
13,27.111295271625559
2,1, 7,21, 0, 8,30.00,45.00,SummerDesignDay
7,22.206000000000004
8,4.10232847398885
9,11.736243385085777
10,97.81520556387875
11,716.5867010522687
12,84.84457044702322
13,30.16381835243878
2,1, 7,21, 0, 8,45.00,60.00,SummerDesignDay
7,22.852000000000005
8,4.102325075851664
9,11.97379110795008
10,101.2361693426341
11,741.648419570426
12,86.86100741638039
13,33.22592241698895
2,1, 7,21, 0, 8, 0.00,60.00,SummerDesignDay
100,0.0
137,0.0
2,1, 7,21, 0, 9, 0.00,15.00,SummerDesignDay
7,23.574000000000006
8,4.102324930106142
9,12.236828524470156
10,104.13486126677188
11,762.8840144997668
12,88.93643839941702
13,36.29399678479364
2,1, 7,21, 0, 9,15.00,30.00,SummerDesignDay
7,24.296
8,4.1023252341950509
9,12.497305424921969
10,106.60715105908092
11,780.9958200836029
12,91.0905714221595
13,39.36413379917721
2,1, 7,21, 0, 9,30.00,45.00,SummerDesignDay
7,25.018
8,4.10232498503135
9,12.755260390153366
10,108.72648436233796
11,796.5218934732802
12,93.3471241022664
13,42.43197135418063
2,1, 7,21, 0, 9,45.00,60.00,SummerDesignDay
7,25.740000000000003
8,4.10232505452026
9,13.010732783076844
10,110.54986381080203
11,809.8798315996598
12,95.73517994331361
13,45.492481441177748
2,1, 7,21, 0, 9, 0.00,60.00,SummerDesignDay
100,0.0
137,0.0
2,1, 7,21, 0,10, 0.00,15.00,SummerDesignDay
7,26.386000000000004
8,4.102322119504457
9,13.237238089471262
10,112.12203807770438
11,821.3974598140491
12,98.29105514113063
13,48.539678101524639
2,1, 7,21, 0,10,15.00,30.00,SummerDesignDay
7,27.032000000000005
8,4.102332578675023
9,13.461821895165855
10,113.47847971311856
11,831.3346473002689
12,101.06089636913767
13,51.5662037251123
2,1, 7,21, 0,10,30.00,45.00,SummerDesignDay
7,27.678
8,4.10232807707423
9,13.6844929024382
10,114.64753256737981
11,839.8990389340802
12,104.10432455937007
13,54.56272943785292
2,1, 7,21, 0,10,45.00,60.00,SummerDesignDay
7,28.324
8,4.102325481132047
9,13.90528259715858
10,115.65198104636518
11,847.2575515271251
12,107.4995576560639
13,57.51706803877009
2,1, 7,21, 0,10, 0.00,60.00,SummerDesignDay
100,0.0
137,4968300.2200792799
2,1, 7,21, 0,11, 0.00,15.00,SummerDesignDay
7,28.894000000000003
8,4.1023313892414949
9,14.098567200551442
10,116.51021045965597
11,853.5448744486565
12,111.35055140061235
13,60.41283887411275
2,1, 7,21, 0,11,15.00,30.00,SummerDesignDay
7,29.464000000000003
8,4.102324542772132
9,14.290415617825538
10,117.23707358590076
11,858.8698180169869
12,115.79665090578254
13,63.22743479959313
2,1, 7,21, 0,11,30.00,45.00,SummerDesignDay
7,30.034000000000004
8,4.102330826196613
9,14.480867148674229
10,117.84454278847172
11,863.3200908488208
12,121.0246001710939
13,65.92892376996893
2,1, 7,21, 0,11,45.00,60.00,SummerDesignDay
7,30.604000000000004
8,4.102323974576526
9,14.669916481832923
10,118.3422029990803
11,866.9659114194484
12,127.28026092207456
13,68.47142631991295
2,1, 7,21, 0,11, 0.00,60.00,SummerDesignDay
100,0.0
137,11472108.50875321
2,1, 7,21, 0,12, 0.00,15.00,SummerDesignDay
7,30.984
8,4.102328966856433
9,14.795193016616317
10,118.73762451576876
11,869.8627391522681
12,134.87005820521299
13,70.78868947637962
2,1, 7,21, 0,12,15.00,30.00,SummerDesignDay
7,31.364
8,4.102332691508339
9,14.919860629098335
10,119.03664320868399
11,872.0533271848123
12,144.12507376373933
13,72.78679393654969
2,1, 7,21, 0,12,30.00,45.00,SummerDesignDay
7,31.744
8,4.102323521109288
9,15.043919042446598
10,119.2435677001673
11,873.5692401542134
12,155.27555312993659
13,74.3408113842416
2,1, 7,21, 0,12,45.00,60.00,SummerDesignDay
7,32.124
8,4.102328352952055
9,15.167391835890813
10,119.36132727617034
11,874.4319377849028
12,168.1961333754486
13,75.30745891774221
2,1, 7,21, 0,12, 0.00,60.00,SummerDesignDay
100,0.0
137,19941476.334906594
2,1, 7,21, 0,13, 0.00,15.00,SummerDesignDay
7,32.428000000000007
8,4.102314311594568
9,15.265729290519508
10,119.39156995183723
11,874.6534933095492
12,182.1494656546445
13,75.56725124259417
2,1, 7,21, 0,13,15.00,30.00,SummerDesignDay
7,32.732
8,4.102329309839415
9,15.363712514341725
10,119.33471674428984
11,874.2369910673286
12,195.904016572102
13,75.08296876516363
2,1, 7,21, 0,13,30.00,45.00,SummerDesignDay
7,33.036
8,4.102315867995968
9,15.461299969469197
10,119.18997543308976
11,873.1766273120114
12,208.33147035900439
13,73.92212826520373
2,1, 7,21, 0,13,45.00,60.00,SummerDesignDay
7,33.34
8,4.102331455714506
9,15.55853740333926
10,118.95531463205502
11,871.4575202640798
12,218.89416456956818
13,72.21769969109254
2,1, 7,21, 0,13, 0.00,60.00,SummerDesignDay
100,0.0
137,35023123.544149909
2,1, 7,21, 0,14, 0.00,15.00,SummerDesignDay
7,33.53
8,4.102334064029256
9,15.61911716562065
10,118.62739661768005
11,869.0552180168785
12,227.6080602967489
13,70.11033175691253
2,1, 7,21, 0,14,15.00,30.00,SummerDesignDay
7,33.72
8,4.102308013699355
9,15.679534652664433
10,118.2014648327441
11,865.9348743966704
12,234.75531261133347
13,67.71577479608078
2,1, 7,21, 0,14,30.00,45.00,SummerDesignDay
7,33.910000000000007
8,4.10230986080334
9,15.739830365138028
10,117.67117906171583
11,862.050041470281
12,240.6674051775817
13,65.11880639910338
2,1, 7,21, 0,14,45.00,60.00,SummerDesignDay
7,34.1
8,4.102312022257816
9,15.799980774545086
10,117.02838765464931
11,857.3410008748111
12,245.6335704288034
13,62.37868409222815
2,1, 7,21, 0,14, 0.00,60.00,SummerDesignDay
100,0.0
137,59481625.94997789
2,1, 7,21, 0,15, 0.00,15.00,SummerDesignDay
7,34.1
8,4.102312022257816
9,15.799980774545086
10,116.26282145459158
11,851.7325215532783
12,249.88067498556473
13,59.53643181218928
2,1, 7,21, 0,15,15.00,30.00,SummerDesignDay
7,34.1
8,4.102312022257816
9,15.799980774545086
10,115.36168768961307
11,845.1308846387492
12,253.57964024568987
13,56.6207248559765
2,1, 7,21, 0,15,30.00,45.00,SummerDesignDay
7,34.1
8,4.102312022257816
9,15.799980774545086
10,114.30913318782231
11,837.4199510086667
12,256.85782803378228
13,53.651999098920757
2,1, 7,21, 0,15,45.00,60.00,SummerDesignDay
7,34.1
8,4.102312022257816
9,15.799980774545086
10,113.08553360317262
11,828.4559542075718
12,259.8104379779815
13,50.645177982865558
2,1, 7,21, 0,15, 0.00,60.00,SummerDesignDay
100,0.0
137,88007411.01485047
2,1, 7,21, 0,16, 0.00,15.00,SummerDesignDay
7,33.872
8,4.102314853629834
9,15.727785127867579
10,111.66654696966806
11,818.0605668577364
12,262.5093591700315
13,47.611459365082527
2,1, 7,21, 0,16,15.00,30.00,SummerDesignDay
7,33.644
8,4.1023173154393499
9,15.655387194299486
10,110.02184282022236
11,806.0115902813021
12,265.0096348927905
13,44.55949217302301
2,1, 7,21, 0,16,30.00,45.00,SummerDesignDay
7,33.416000000000007
8,4.102319976231699
9,15.582779634353223
10,108.11337755849103
11,792.0303200064693